data_Wien2k_Data
_cell_length_a    6.163098
_cell_length_b    6.925427
_cell_length_c    3.685048
_cell_angle_alpha   90.000000
_cell_angle_beta    90.000000
_cell_angle_gamma   83.224620
_cell_measurement_temperature 0.0
_diffrn_ambient_temperature 0.0
_symmetry_space_group_name_H-M         'C2/c   '
_symmetry_space_group_number   15

loop_
_symmetry_equiv_pos_as_xyz
   +x,+y,+z
   -x,-y+1/2,+z
   -x,-y,-z
   +x,+y+1/2,-z
   +x+1/2,+y,+z+1/2
   -x+1/2,-y+1/2,+z+1/2
   -x+1/2,-y,-z+1/2
   +x+1/2,+y+1/2,-z+1/2
loop_
_atom_site_label
_atom_site_type_symbol
_atom_site_fract_x
_atom_site_fract_y
_atom_site_fract_z
_atom_site_U_iso_or_equiv
F0001  F   0.24500000  0.59413000  0.33030000  0.05000000
#End data_Wien2k_Data

