data_Wien2k_Data
_cell_length_a    6.655951
_cell_length_b    6.655951
_cell_length_c    6.655951
_cell_angle_alpha   90.000000
_cell_angle_beta    90.000000
_cell_angle_gamma   90.000000
_cell_measurement_temperature 0.0
_diffrn_ambient_temperature 0.0
_symmetry_space_group_name_H-M         'Fd-3m  '
_symmetry_space_group_number  227

loop_
_symmetry_equiv_pos_as_xyz
   +x,+y,+z
   -x+3/4,-y+1/4,+z+1/2
   -x+1/4,+y+1/2,-z+3/4
   +x+1/2,-y+3/4,-z+1/4
   +z,+x,+y
   +z+1/2,-x+3/4,-y+1/4
   -z+3/4,-x+1/4,+y+1/2
   -z+1/4,+x+1/2,-y+3/4
   +y,+z,+x
   -y+1/4,+z+1/2,-x+3/4
   +y+1/2,-z+3/4,-x+1/4
   -y+3/4,-z+1/4,+x+1/2
   +y+3/4,+x+1/4,-z+1/2
   -y,-x,-z
   +y+1/4,-x+1/2,+z+3/4
   -y+1/2,+x+3/4,+z+1/4
   +x+3/4,+z+1/4,-y+1/2
   -x+1/2,+z+3/4,+y+1/4
   -x,-z,-y
   +x+1/4,-z+1/2,+y+3/4
   +z+3/4,+y+1/4,-x+1/2
   +z+1/4,-y+1/2,+x+3/4
   -z+1/2,+y+3/4,+x+1/4
   -z,-y,-x
   -x,-y,-z
   +x+1/4,+y+3/4,-z+1/2
   +x+3/4,-y+1/2,+z+1/4
   -x+1/2,+y+1/4,+z+3/4
   -z,-x,-y
   -z+1/2,+x+1/4,+y+3/4
   +z+1/4,+x+3/4,-y+1/2
   +z+3/4,-x+1/2,+y+1/4
   -y,-z,-x
   +y+3/4,-z+1/2,+x+1/4
   -y+1/2,+z+1/4,+x+3/4
   +y+1/4,+z+3/4,-x+1/2
   -y+1/4,-x+3/4,+z+1/2
   +y,+x,+z
   -y+3/4,+x+1/2,-z+1/4
   +y+1/2,-x+1/4,-z+3/4
   -x+1/4,-z+3/4,+y+1/2
   +x+1/2,-z+1/4,-y+3/4
   +x,+z,+y
   -x+3/4,+z+1/2,-y+1/4
   -z+1/4,-y+3/4,+x+1/2
   -z+3/4,+y+1/2,-x+1/4
   +z+1/2,-y+1/4,-x+3/4
   +z,+y,+x
   +x,+y+1/2,+z+1/2
   +x+1/2,+y,+z+1/2
   +x+1/2,+y+1/2,+z
   -x+3/4,-y+3/4,+z
   -x+1/4,-y+1/4,+z
   -x+1/4,-y+3/4,+z+1/2
   -x+1/4,+y,-z+1/4
   -x+3/4,+y+1/2,-z+1/4
   -x+3/4,+y,-z+3/4
   +x+1/2,-y+1/4,-z+3/4
   +x,-y+3/4,-z+3/4
   +x,-y+1/4,-z+1/4
   +z,+x+1/2,+y+1/2
   +z+1/2,+x,+y+1/2
   +z+1/2,+x+1/2,+y
   +z+1/2,-x+1/4,-y+3/4
   +z,-x+3/4,-y+3/4
   +z,-x+1/4,-y+1/4
   -z+3/4,-x+3/4,+y
   -z+1/4,-x+1/4,+y
   -z+1/4,-x+3/4,+y+1/2
   -z+1/4,+x,-y+1/4
   -z+3/4,+x+1/2,-y+1/4
   -z+3/4,+x,-y+3/4
   +y,+z+1/2,+x+1/2
   +y+1/2,+z,+x+1/2
   +y+1/2,+z+1/2,+x
   -y+1/4,+z,-x+1/4
   -y+3/4,+z+1/2,-x+1/4
   -y+3/4,+z,-x+3/4
   +y+1/2,-z+1/4,-x+3/4
   +y,-z+3/4,-x+3/4
   +y,-z+1/4,-x+1/4
   -y+3/4,-z+3/4,+x
   -y+1/4,-z+1/4,+x
   -y+1/4,-z+3/4,+x+1/2
   +y+3/4,+x+3/4,-z
   +y+1/4,+x+1/4,-z
   +y+1/4,+x+3/4,-z+1/2
   -y,-x+1/2,-z+1/2
   -y+1/2,-x,-z+1/2
   -y+1/2,-x+1/2,-z
   +y+1/4,-x,+z+1/4
   +y+3/4,-x+1/2,+z+1/4
   +y+3/4,-x,+z+3/4
   -y+1/2,+x+1/4,+z+3/4
   -y,+x+3/4,+z+3/4
   -y,+x+1/4,+z+1/4
   +x+3/4,+z+3/4,-y
   +x+1/4,+z+1/4,-y
   +x+1/4,+z+3/4,-y+1/2
   -x+1/2,+z+1/4,+y+3/4
   -x,+z+3/4,+y+3/4
   -x,+z+1/4,+y+1/4
   -x,-z+1/2,-y+1/2
   -x+1/2,-z,-y+1/2
   -x+1/2,-z+1/2,-y
   +x+1/4,-z,+y+1/4
   +x+3/4,-z+1/2,+y+1/4
   +x+3/4,-z,+y+3/4
   +z+3/4,+y+3/4,-x
   +z+1/4,+y+1/4,-x
   +z+1/4,+y+3/4,-x+1/2
   +z+1/4,-y,+x+1/4
   +z+3/4,-y+1/2,+x+1/4
   +z+3/4,-y,+x+3/4
   -z+1/2,+y+1/4,+x+3/4
   -z,+y+3/4,+x+3/4
   -z,+y+1/4,+x+1/4
   -z,-y+1/2,-x+1/2
   -z+1/2,-y,-x+1/2
   -z+1/2,-y+1/2,-x
   -x,-y+1/2,-z+1/2
   -x+1/2,-y,-z+1/2
   -x+1/2,-y+1/2,-z
   +x+1/4,+y+1/4,-z
   +x+3/4,+y+3/4,-z
   +x+3/4,+y+1/4,-z+1/2
   +x+3/4,-y,+z+3/4
   +x+1/4,-y+1/2,+z+3/4
   +x+1/4,-y,+z+1/4
   -x+1/2,+y+3/4,+z+1/4
   -x,+y+1/4,+z+1/4
   -x,+y+3/4,+z+3/4
   -z,-x+1/2,-y+1/2
   -z+1/2,-x,-y+1/2
   -z+1/2,-x+1/2,-y
   -z+1/2,+x+3/4,+y+1/4
   -z,+x+1/4,+y+1/4
   -z,+x+3/4,+y+3/4
   +z+1/4,+x+1/4,-y
   +z+3/4,+x+3/4,-y
   +z+3/4,+x+1/4,-y+1/2
   +z+3/4,-x,+y+3/4
   +z+1/4,-x+1/2,+y+3/4
   +z+1/4,-x,+y+1/4
   -y,-z+1/2,-x+1/2
   -y+1/2,-z,-x+1/2
   -y+1/2,-z+1/2,-x
   +y+3/4,-z,+x+3/4
   +y+1/4,-z+1/2,+x+3/4
   +y+1/4,-z,+x+1/4
   -y+1/2,+z+3/4,+x+1/4
   -y,+z+1/4,+x+1/4
   -y,+z+3/4,+x+3/4
   +y+1/4,+z+1/4,-x
   +y+3/4,+z+3/4,-x
   +y+3/4,+z+1/4,-x+1/2
   -y+1/4,-x+1/4,+z
   -y+3/4,-x+3/4,+z
   -y+3/4,-x+1/4,+z+1/2
   +y,+x+1/2,+z+1/2
   +y+1/2,+x,+z+1/2
   +y+1/2,+x+1/2,+z
   -y+3/4,+x,-z+3/4
   -y+1/4,+x+1/2,-z+3/4
   -y+1/4,+x,-z+1/4
   +y+1/2,-x+3/4,-z+1/4
   +y,-x+1/4,-z+1/4
   +y,-x+3/4,-z+3/4
   -x+1/4,-z+1/4,+y
   -x+3/4,-z+3/4,+y
   -x+3/4,-z+1/4,+y+1/2
   +x+1/2,-z+3/4,-y+1/4
   +x,-z+1/4,-y+1/4
   +x,-z+3/4,-y+3/4
   +x,+z+1/2,+y+1/2
   +x+1/2,+z,+y+1/2
   +x+1/2,+z+1/2,+y
   -x+3/4,+z,-y+3/4
   -x+1/4,+z+1/2,-y+3/4
   -x+1/4,+z,-y+1/4
   -z+1/4,-y+1/4,+x
   -z+3/4,-y+3/4,+x
   -z+3/4,-y+1/4,+x+1/2
   -z+3/4,+y,-x+3/4
   -z+1/4,+y+1/2,-x+3/4
   -z+1/4,+y,-x+1/4
   +z+1/2,-y+3/4,-x+1/4
   +z,-y+1/4,-x+1/4
   +z,-y+3/4,-x+3/4
   +z,+y+1/2,+x+1/2
   +z+1/2,+y,+x+1/2
   +z+1/2,+y+1/2,+x
loop_
_atom_site_label
_atom_site_type_symbol
_atom_site_fract_x
_atom_site_fract_y
_atom_site_fract_z
_atom_site_U_iso_or_equiv
Sn001  Sn  0.87500000  0.37500000  0.37500000  0.05000000
#End data_Wien2k_Data

