data_Wien2k_Data
_cell_length_a    3.236028
_cell_length_b    3.236028
_cell_length_c    5.189528
_cell_angle_alpha   90.000000
_cell_angle_beta    90.000000
_cell_angle_gamma  120.000000
_cell_measurement_temperature 0.0
_diffrn_ambient_temperature 0.0
_symmetry_space_group_name_H-M         'P63/mmc'
_symmetry_space_group_number  194

loop_
_symmetry_equiv_pos_as_xyz
   +x,+y,+z
   -y,+x-y,+z
   -x+y,-x,+z
   -x,-y,+z+1/2
   +y,-x+y,+z+1/2
   +x-y,+x,+z+1/2
   +y,+x,-z
   +x-y,-y,-z
   -x,-x+y,-z
   -y,-x,-z+1/2
   -x+y,+y,-z+1/2
   +x,+x-y,-z+1/2
   -x,-y,-z
   +y,-x+y,-z
   +x-y,+x,-z
   +x,+y,-z+1/2
   -y,+x-y,-z+1/2
   -x+y,-x,-z+1/2
   -y,-x,+z
   -x+y,+y,+z
   +x,+x-y,+z
   +y,+x,+z+1/2
   +x-y,-y,+z+1/2
   -x,-x+y,+z+1/2
loop_
_atom_site_label
_atom_site_type_symbol
_atom_site_fract_x
_atom_site_fract_y
_atom_site_fract_z
_atom_site_U_iso_or_equiv
Zr001  Zr  0.33333334  0.66666666  0.75000000  0.05000000
#End data_Wien2k_Data

