data_Wien2k_Data
_cell_length_a    4.571478
_cell_length_b    4.271628
_cell_length_c    4.276819
_cell_angle_alpha   90.000000
_cell_angle_beta    90.000000
_cell_angle_gamma  113.278720
_cell_measurement_temperature 0.0
_diffrn_ambient_temperature 0.0
_symmetry_space_group_name_H-M         'P2/m   '
_symmetry_space_group_number   10

loop_
_symmetry_equiv_pos_as_xyz
   +x,+y,+z
   -x,-y,+z
   -x,-y,-z
   +x,+y,-z
loop_
_atom_site_label
_atom_site_type_symbol
_atom_site_fract_x
_atom_site_fract_y
_atom_site_fract_z
_atom_site_U_iso_or_equiv
O1001  O1  0.35333000  0.43782000  0.00000000  0.05000000
O2002  O2  0.35333000  0.93782000  0.50000000  0.05000000
#End data_Wien2k_Data

